# LAMMPS data file written by OVITO Basic 3.4.4
3051 atoms
3 atom types
0.0 30.0 xlo xhi
0.0 30.0 ylo yhi
0.0 30.0 zlo zhi

Masses

1 15.999  # O
2 1.008  # H
3 12.011  # C

Atoms  # full

1 1 1 0.0 8.5102364049 27.0912187577 18.1524566485
2 1 1 0.0 11.3918071986 25.2977190377 22.9842006428
3 1 1 0.0 10.7181950566 25.6631714058 18.7405384378
4 1 1 0.0 11.910909491 26.8163604725 20.8278022855
5 1 2 0.0 7.7047929317 26.5075643235 18.2709196661
6 1 2 0.0 12.8031758 21.3655780942 23.2336769759
7 1 2 0.0 10.700732857 23.8325939442 22.4440168771
8 1 2 0.0 10.8678851414 25.8375634311 23.6443823133
9 1 2 0.0 11.5625316426 25.9006130983 22.1978256297
10 1 2 0.0 14.7017804536 26.6791948499 19.3926263842
11 1 2 0.0 11.1651908372 26.0855346201 19.539066648
12 1 2 0.0 9.3067338647 26.5307395608 18.4022763883
13 1 2 0.0 11.803989086 25.682692837 17.4510141242
14 1 2 0.0 10.4920140406 24.7188063115 19.0016891539
15 1 2 0.0 12.9012655343 26.874314909 20.6592898727
16 1 2 0.0 14.7897543228 23.3601752067 20.4200998314
17 1 2 0.0 13.1415680982 22.6667271717 20.4510300498
18 1 2 0.0 10.0489782644 24.113526512 25.7293457994
19 1 2 0.0 11.4474316359 23.4715831451 26.6420649612
20 1 2 0.0 9.1746301538 24.7487346276 16.7047139638
21 1 3 0.0 10.5477828118 23.2025474092 26.0781570115
22 1 2 0.0 7.5457451381 27.1032346895 14.5877607054
23 1 1 0.0 19.0181035805 14.435151169 19.0448088569
24 1 2 0.0 18.2126601073 13.8514967348 19.1632718745
25 1 2 0.0 19.6824973294 12.0926670389 17.5970661722
26 1 1 0.0 18.4113390349 26.1597035505 11.5621242009
27 1 1 0.0 20.623672094 25.8114682022 10.0021099012
28 1 1 0.0 12.6706392876 23.1276561001 15.8510299964
29 1 1 0.0 19.2864947622 15.1021052567 16.4342110356
30 1 1 0.0 13.7606729186 20.1728077643 10.3988925864
31 1 1 0.0 14.8555285608 26.3275968703 17.7197316273
32 1 1 0.0 12.4337179333 25.6812172686 16.6659871701
33 1 1 0.0 12.9947413434 19.541199746 18.215703307
34 1 1 0.0 18.2800527252 24.0852296063 13.2800985448
35 1 1 0.0 15.252447204 22.4462552886 15.8969665651
36 1 1 0.0 16.1642561785 22.3887260036 13.366617121
37 1 1 0.0 19.0537494027 17.7512158355 16.2391744465
38 1 1 0.0 16.6422437124 18.3793080443 15.2306365807
39 1 1 0.0 15.3878301675 19.9951038633 17.035054102
40 1 1 0.0 19.8111786711 19.9862208259 12.6066498234
41 1 1 0.0 16.5876161328 24.2690188408 17.3618586579
42 1 1 0.0 15.9686315703 18.7447604124 10.9869743757
43 1 1 0.0 15.950633382 19.4944874433 21.3257724927
44 1 1 0.0 17.1111897548 20.3184491682 19.0783021561
45 1 1 0.0 17.1613460047 19.8979494791 13.0742382234
46 1 2 0.0 19.8196721573 25.985381515 10.5745884124
47 1 2 0.0 12.0924355503 22.9377026959 14.263050088
48 1 2 0.0 19.1970761131 16.1047571969 16.3879940794
49 1 2 0.0 13.8467593576 21.6313340276 11.2898867108
50 1 2 0.0 12.9552294455 19.5891533301 10.517355604
51 1 2 0.0 19.1644956485 14.8509990815 17.3989427039
52 1 2 0.0 20.8115128107 14.6345446744 15.9108906657
53 1 2 0.0 15.2441580305 27.1221309368 17.242271476
54 1 2 0.0 21.2857949661 22.2583628093 9.4227971793
55 1 2 0.0 13.3290199095 25.9528373993 17.0277543733
56 1 2 0.0 12.5692284955 24.0798715355 16.1627902171
57 1 2 0.0 12.1547228027 22.5578765925 16.5000260963
58 1 2 0.0 18.0536123137 14.4471671008 15.4801129138
59 1 2 0.0 18.2476571131 24.8400811785 12.6169611308
60 1 2 0.0 17.4460735941 23.5368878862 13.2031345241
61 1 2 0.0 19.6597825841 23.1349562475 13.0622946812
62 1 2 0.0 14.2755015561 22.694451454 15.8935623361
63 1 2 0.0 15.3563320408 22.4485561855 12.7743452058
64 1 2 0.0 15.812558419 22.4197825262 14.3096847392
65 1 2 0.0 19.1531725916 18.168415133 17.1492108051
66 1 2 0.0 15.9511693707 16.9141829508 14.690452815
67 1 2 0.0 16.1183216552 18.9191524377 15.8908182512
68 1 2 0.0 16.8129681564 18.9822021049 14.4442615676
69 1 2 0.0 14.4915405009 19.7962676205 17.44264626
70 1 2 0.0 15.3012103129 21.5309613213 16.3089699717
71 1 2 0.0 19.9522169673 19.7607838565 11.6390623221
72 1 2 0.0 20.0845382715 20.9470730119 12.7157361047
73 1 2 0.0 15.5090860228 25.5748698982 17.6084827
74 1 2 0.0 16.0878649993 23.5594515076 16.8529540866
75 1 2 0.0 20.6195509541 19.0606100341 13.8311628772
76 1 2 0.0 18.1412314717 18.0039916613 15.8981603077
77 1 2 0.0 16.4156273509 19.1671236267 11.7855025859
78 1 2 0.0 14.5571703784 19.6123285674 10.6487123262
79 1 2 0.0 17.0544255998 18.7642818436 9.6974500621
80 1 2 0.0 15.7424505544 17.8003953181 11.2481250918
81 1 2 0.0 14.9560964619 19.4528761634 21.1892314719
82 1 2 0.0 16.6776032691 20.0027319017 19.9324830129
83 1 2 0.0 16.0252354603 20.0789860385 17.808378715
84 1 2 0.0 16.8189234131 20.8375324823 13.1768117456
85 1 2 0.0 20.2668500809 18.3037552271 15.202116003
86 1 2 0.0 18.1517020481 19.9559039156 12.9057258106
87 1 2 0.0 13.6223127815 23.7745695149 19.1289703177
88 1 2 0.0 14.315930407 22.1269480026 19.2146693052
89 1 2 0.0 20.0401908365 16.4417642133 12.6665357693
90 1 2 0.0 18.392004612 15.7483161783 12.6974659877
91 1 2 0.0 13.1114880092 19.7900095049 13.2947085902
92 1 2 0.0 13.5651654504 19.2173191733 14.928666173
93 1 2 0.0 15.2994147781 17.1951155186 17.9757817373
94 1 2 0.0 16.6978681497 16.5531721517 18.8885008991
95 1 2 0.0 17.786768955 21.6731019151 9.4168396989
96 1 2 0.0 18.4213117011 23.1619094124 10.1802725809
97 1 2 0.0 16.6898249266 22.7411803903 10.3424541391
98 1 2 0.0 15.4316742227 25.2524741934 13.3289896696
99 1 2 0.0 14.9030443772 26.4624496337 14.5375298962
100 1 2 0.0 18.3962137113 21.9443806291 15.0950588038
101 1 2 0.0 17.962438869 21.3464467078 16.7215536636
102 1 2 0.0 13.923531141 18.9944522925 23.6395283503
103 1 2 0.0 9.9669279492 23.6404674343 15.5459909618
104 1 2 0.0 14.4250666676 17.8303236342 8.9511499017
105 1 3 0.0 13.9668734 22.9825602536 19.8034008242
106 1 3 0.0 15.7982193256 16.2841364158 18.3245929494
107 1 1 0.0 11.768679682 22.8325591 13.3181279201
108 1 1 0.0 13.965813146 22.4980189493 11.7806175636
109 1 1 0.0 14.0290641003 20.8397618519 7.788294765
110 1 1 0.0 11.1908519695 27.0156022958 14.6298802832
111 1 1 0.0 7.7373106815 25.2788563413 9.5697870364
112 1 1 0.0 16.1963340105 26.2593320044 10.0033175369
113 1 1 0.0 13.7963187408 23.4888724308 7.593258176
114 1 1 0.0 14.069705165 24.5651171082 10.035255684
115 1 1 0.0 11.3848130505 24.1169646396 6.5847203101
116 1 1 0.0 10.1303995057 25.7327604586 8.3891378315
117 1 1 0.0 15.7736228472 24.3554144733 5.9837532321
118 1 1 0.0 10.6932027201 25.2321440386 12.6798562222
119 1 1 0.0 11.8537590929 26.0561057635 10.4323858856
120 1 1 0.0 17.1118665509 26.1928214111 7.4639133487
121 1 2 0.0 18.4825875228 27.0321412894 12.0506228113
122 1 2 0.0 13.1458024439 22.6113294842 12.3524306838
123 1 2 0.0 13.9396454512 21.8424137922 7.7420778088
124 1 2 0.0 13.9070649867 20.5886556768 8.7530264334
125 1 2 0.0 11.7025420741 26.5872325447 15.3760296434
126 1 2 0.0 15.5540821489 20.3722012697 7.2649743952
127 1 2 0.0 12.7961816519 20.1848236961 6.8341966432
128 1 2 0.0 17.5846453438 26.2146320641 10.9926274546
129 1 2 0.0 15.8058762221 27.1790929415 10.1123208503
130 1 2 0.0 14.1124752251 23.8238782983 10.7089867873
131 1 2 0.0 14.8921905709 25.1346589361 10.1079234441
132 1 2 0.0 13.8957419298 23.9060717283 8.5032945345
133 1 2 0.0 10.6937387089 22.6518395461 6.0445365444
134 1 2 0.0 10.8608909933 24.656809033 7.2449019807
135 1 2 0.0 11.5555374946 24.7198587002 5.7983452971
136 1 2 0.0 9.2341098391 25.5339242158 8.7967299895
137 1 2 0.0 12.8838008099 23.7416482566 7.2522440372
138 1 2 0.0 11.3516234821 23.7154893558 13.0823989055
139 1 2 0.0 20.2801598621 25.7265196976 9.0632841468
140 1 2 0.0 10.8610459548 25.8919220206 13.4213758396
141 1 2 0.0 19.8031938694 24.5787634707 7.1793068794
142 1 2 0.0 9.6986658 25.1905327587 12.5433152014
143 1 2 0.0 11.4201726072 25.740388497 11.2865667424
144 1 2 0.0 12.6791028035 25.4982826716 10.3098637607
145 1 2 0.0 18.0825177312 25.9258032838 7.4545117407
146 1 2 0.0 16.5294278339 26.221242254 9.0561436792
147 1 2 0.0 10.7678047985 25.8166426338 9.1624624445
148 1 2 0.0 15.009419419 24.0414118224 6.5561997325
149 1 2 0.0 16.621367182 25.5213481159 6.9021535124
150 1 2 0.0 10.0419841163 22.9327721139 9.3298654667
151 1 2 0.0 11.4404374878 22.290828747 10.2425846286
152 1 2 0.0 17.3365629587 23.2763394595 8.7623961078
153 1 2 0.0 14.7182598095 26.8030302588 12.7889211609
154 1 2 0.0 13.6902836916 25.569750546 13.5743841403
155 1 2 0.0 13.9486405654 26.2348244128 7.1150158318
156 1 2 0.0 12.7050082071 27.0841033031 8.0756373931
157 1 2 0.0 8.6661004792 24.7321088878 14.9936120798
158 1 3 0.0 10.5407886637 22.0217930111 9.6786766788
159 1 3 0.0 17.55855672 22.7128952056 9.6754870933
160 1 3 0.0 14.6873336724 26.022792269 13.5574707158
161 1 1 0.0 24.2685400942 7.5167401756 11.2912447948
162 1 2 0.0 22.6003027259 10.2816351072 15.1554022964
163 1 2 0.0 24.3546265332 8.9752664389 12.1822389192
164 1 2 0.0 23.4630966211 6.9330857414 11.4097078124
165 1 2 0.0 25.065037554 6.9562609787 11.5410645346
166 1 2 0.0 23.6193551848 7.1339419163 14.1870607987
167 1 2 0.0 24.073032626 6.5612515847 15.8210183814
168 1 2 0.0 20.4747951248 10.9843998456 16.4383431702
169 1 1 0.0 17.9210758013 16.2092451067 8.0974659343
170 1 1 0.0 22.2765468576 10.1764915113 14.2104801285
171 1 1 0.0 24.4736803216 9.8419513606 12.6729697721
172 1 1 0.0 21.108093712 21.5811591423 8.7002643914
173 1 1 0.0 20.1059650745 19.4091858769 9.9661675652
174 1 1 0.0 17.684154447 18.7628062752 8.912423108
175 1 1 0.0 18.2451778571 12.6227887526 10.4621392448
176 1 1 0.0 20.5028837177 15.5278442952 8.143402503
177 1 1 0.0 24.5775723406 11.9090495195 10.9276078924
178 1 1 0.0 20.6382666813 13.0766928699 9.2814900399
179 1 1 0.0 21.8380526466 17.3506078474 9.6082945958
180 1 1 0.0 23.0529341797 15.9874459005 11.6469965919
181 1 1 0.0 21.2010698957 12.5760764499 13.5722084306
182 1 1 0.0 22.3616262685 13.4000381749 11.324738094
183 1 1 0.0 23.7961350633 18.2326377734 7.9939800342
184 1 2 0.0 23.6536696195 9.9552618955 13.2447828922
185 1 2 0.0 17.3428720641 16.0192917025 6.5094860259
186 1 2 0.0 20.4945945442 20.2037199435 9.4887074138
187 1 2 0.0 18.5794564233 19.0344264059 9.2741903111
188 1 2 0.0 17.8196650092 17.1614605421 8.4092261549
189 1 2 0.0 17.4051593164 15.6394655991 8.7464620342
190 1 2 0.0 19.5259380699 15.7760404606 8.139998274
191 1 2 0.0 21.0629949327 15.5013715328 6.5561206771
192 1 2 0.0 24.6203424007 11.1678107096 11.6013389958
193 1 2 0.0 21.3687581689 12.0007414443 8.1372541891
194 1 2 0.0 19.7419770147 12.8778566271 9.6890821979
195 1 2 0.0 20.5516468266 14.6125503279 8.5554059095
196 1 2 0.0 20.7595225365 18.6564589048 9.8549186379
197 1 2 0.0 22.229884223 16.897245895 10.4099753348
198 1 2 0.0 21.3383015131 16.6410405142 9.0993900245
199 1 2 0.0 21.8594906577 11.0594217672 13.9747511139
200 1 2 0.0 23.6374805075 19.8809254247 7.8492187414
201 1 2 0.0 22.0144131389 21.323419571 8.3475189495
202 1 2 0.0 21.3689131304 13.2358544319 14.313728048
203 1 2 0.0 20.2065329756 12.53446517 13.4356674098
204 1 2 0.0 21.9280397828 13.0843209083 12.1789189508
205 1 2 0.0 23.1869699791 12.8422150829 11.2022159691
206 1 2 0.0 21.2756719741 13.1605750451 10.0548146529
207 1 2 0.0 22.7885313025 15.0230042155 11.5432413952
208 1 2 0.0 23.0679359806 17.8811864759 8.5944050154
209 1 2 0.0 18.8727492952 16.8561585215 11.3754062556
210 1 2 0.0 19.5663669207 15.2085370092 11.4611052431
211 1 2 0.0 18.3619245229 12.8715985115 5.5411445281
212 1 2 0.0 18.8156019642 12.29890818 7.1751021109
213 1 2 0.0 20.5498512919 10.2767045252 10.2222176752
214 1 2 0.0 21.9483046634 9.6347611583 11.134936837
215 1 2 0.0 20.1534808909 19.5440386403 6.7839658341
216 1 2 0.0 23.2128753827 14.4280357144 8.9679896015
217 1 2 0.0 19.1739676548 12.0760412991 15.8859642882
218 1 2 0.0 15.2173644629 16.7220564409 7.7924268997
219 1 3 0.0 19.2173099138 16.0641492602 12.0498367621
220 1 3 0.0 21.0486558393 9.3657254224 10.5710288872
221 1 1 0.0 17.0191161957 15.9141481066 5.564563858
222 1 1 0.0 16.4412884833 20.0971913024 6.8763162211
223 1 2 0.0 20.2449652108 22.3872143072 7.4319418646
224 1 2 0.0 17.1116383793 21.4838381093 6.1285776098
225 1 2 0.0 16.9529785879 19.6688215513 7.6224655813
226 1 2 0.0 16.6020599959 16.7970783624 5.3288348433
227 1 2 0.0 16.1114824686 18.9735110272 5.6678117775
228 1 2 0.0 14.9491023138 18.2721217653 4.7897511393
229 1 2 0.0 13.9165369929 17.8136978944 7.2400480177
230 1 1 0.0 9.6343943039 22.2918634778 29.8952603799
231 1 1 0.0 9.4565401342 19.9656220223 28.5000094873
232 1 1 0.0 12.676079235 17.189559472 27.5767849349
233 1 1 0.0 11.6688731932 19.6173866739 26.9399951876
234 1 1 0.0 11.5266361923 16.3838357113 29.8464928373
235 1 1 0.0 9.3252538244 17.8911480781 0.2179838312
236 1 1 0.0 10.8563797703 13.7921392976 29.5445351098
237 1 1 0.0 12.0762546083 12.4236763498 1.567554789
238 1 2 0.0 12.2391924771 16.9028762871 28.4382726147
239 1 2 0.0 10.8648732565 19.7912999867 27.5124736988
240 1 2 0.0 12.2990787774 18.0950114205 27.3555010227
241 1 2 0.0 12.3309960654 16.0642812811 26.3606824657
242 1 2 0.0 9.2928582123 18.6459996502 29.5548464172
243 1 2 0.0 10.7049836834 16.9408747193 1.79967576e-04
244 1 2 0.0 10.9974180666 13.5667023283 28.5769476085
245 1 2 0.0 11.1297393707 14.7529914837 29.6536213912
246 1 2 0.0 13.1518963248 11.0986431708 1.3496942768
247 1 2 0.0 11.6647520534 12.8665285058 0.7690481636
248 1 2 0.0 13.699053862 13.533720735 28.8116617537
249 1 2 0.0 8.8319700542 15.4790203868 26.3547249853
250 1 2 0.0 9.4665128004 16.9678278842 27.1181578673
251 1 2 0.0 7.7350260259 16.547098862 27.2803394255
252 1 2 0.0 13.5361078631 17.6097742705 24.6978243282
253 1 1 0.0 7.4186485732 22.9272160673 18.9308686643
254 1 1 0.0 6.4114425314 25.3550432692 18.2940789171
255 1 1 0.0 12.0709580523 20.947796057 22.6848269051
256 1 1 0.0 10.3588132926 22.9563226839 22.094579822
257 1 1 0.0 10.0658179864 23.1242318679 19.3900380902
258 1 1 0.0 6.2692055304 22.1214923066 21.2005765668
259 1 1 0.0 7.2415351097 20.0652504762 26.9412028233
260 1 1 0.0 7.9685563272 22.4336681535 23.2647137518
261 1 1 0.0 5.5989491085 19.5297958929 20.8986188393
262 1 1 0.0 6.8188239464 18.1613329451 22.9216385185
263 1 1 0.0 10.7493216278 19.3396603177 24.4121361118
264 1 1 0.0 8.1570676502 19.9987398828 24.4017986351
265 1 2 0.0 9.527788622 20.8380597612 28.9885080977
266 1 2 0.0 6.9817618152 22.6405328824 19.7923563441
267 1 2 0.0 7.0416481155 23.8326680158 18.7095847522
268 1 2 0.0 6.5992832481 14.1781197414 24.2028596816
269 1 2 0.0 7.0735654035 21.8019378763 17.7147661952
270 1 2 0.0 11.444435781 21.6958262113 22.444974142
271 1 2 0.0 10.1812502051 23.0207272935 20.380352596
272 1 2 0.0 9.0767332649 23.0472201059 19.223787974
273 1 2 0.0 5.4475530215 22.6785313146 21.354263697
274 1 2 0.0 8.629846443 20.0205505359 27.930512741
275 1 2 0.0 6.8510773214 20.9850114132 27.0502061367
276 1 2 0.0 9.4801559039 22.801218459 22.5528839268
277 1 2 0.0 7.5906685481 23.0720662781 23.9378694223
278 1 2 0.0 6.874403353 22.2608241363 21.9920960998
279 1 2 0.0 5.7399874047 19.3043589236 19.931031338
280 1 2 0.0 5.8723087089 20.490648079 21.0077051206
281 1 2 0.0 7.8944656629 16.8362997661 22.7037780063
282 1 2 0.0 6.4073213915 18.6041851011 22.123131893
283 1 2 0.0 11.3253609613 19.5324381694 26.0011694332
284 1 2 0.0 10.8483949686 18.3846819424 24.1171921658
285 1 2 0.0 11.2520515223 19.9100871421 23.7554200604
286 1 2 0.0 9.1277188304 19.7317217556 24.3923970271
287 1 2 0.0 7.5746289331 20.0271607257 25.9940289656
288 1 2 0.0 8.0313319658 21.5398510095 23.7209975778
289 1 2 0.0 6.0546205183 17.8473302941 23.4940850189
290 1 2 0.0 7.6665682813 19.3272665876 23.8400387988
291 1 2 0.0 9.805361768 19.4854014584 21.302318771
292 1 2 0.0 8.4416232002 19.2713773303 20.1657454832
293 1 2 0.0 5.8279612739 15.9853392804 20.9585047852
294 1 2 0.0 7.9609521226 24.9538930202 21.3882584032
295 1 2 0.0 10.8273838438 22.5846505628 25.2174854767
296 1 2 0.0 9.8704953039 22.6383642172 26.7288290826
297 1 2 0.0 8.381764058 17.0822579313 25.7002813942
298 1 2 0.0 8.2786772012 23.3474308658 16.0519080577
299 1 3 0.0 8.6037578192 16.5188136773 26.6133723797
300 1 1 0.0 6.8135273904 26.6854526523 14.0389106346
301 1 1 0.0 5.491890966 25.077316913 15.7662198413
302 1 2 0.0 6.0679302995 25.2700947647 17.3552531627
303 1 2 0.0 5.5909643068 24.1223385377 15.4712758953
304 1 2 0.0 5.9946208604 25.6477437374 15.1095037898
305 1 2 0.0 4.5479311061 25.2230580537 12.6564025004
306 1 1 0.0 15.3137411934 1.3226586474 28.2291300812
307 1 2 0.0 14.5082977203 0.7390042131 28.3475930988
308 1 1 0.0 14.8848308176 15.3734524845 22.1416963178
309 1 1 0.0 14.7069766479 13.0472110289 20.7464454251
310 1 1 0.0 17.9265157488 10.2711484786 19.8232208727
311 1 1 0.0 16.919309707 12.6989756805 19.1864311255
312 1 1 0.0 8.9662769006 10.0151635784 25.0353512207
313 1 1 0.0 15.5821323751 1.989612735 25.6185322599
314 1 1 0.0 10.0563105316 7.0603152427 19.5832138107
315 1 1 0.0 12.1532948112 15.387077614 25.6381496778
316 1 1 0.0 11.1511661738 13.2151043487 26.9040528516
317 1 1 0.0 8.7293555463 12.568724747 25.8503083944
318 1 1 0.0 16.777072706 9.4654247179 22.0929287752
319 1 1 0.0 14.5756903382 10.9727370847 22.4644197691
320 1 1 0.0 11.548084817 9.333762767 25.0812877894
321 1 1 0.0 12.4598937915 9.2762334819 22.5509383453
322 1 1 0.0 15.3493870157 4.6387233138 25.4234956708
323 1 1 0.0 15.6227734398 5.7149679912 27.8654931788
324 1 1 0.0 12.9378813253 5.2668155226 24.414957805
325 1 1 0.0 11.6834677805 6.8826113416 26.2193753263
326 1 1 0.0 16.1068162841 6.8737283042 21.7909710477
327 1 1 0.0 12.8832537458 11.1565263192 26.5461798822
328 1 1 0.0 17.326691122 5.5052653564 23.8139907269
329 1 1 0.0 14.0981352789 9.7933643722 28.5848818783
330 1 1 0.0 12.2642691833 5.6322678907 20.1712956
331 1 1 0.0 14.5961161539 14.689364493 24.7325603504
332 1 1 0.0 13.4068273677 7.2059566466 28.2626233804
333 1 1 0.0 13.4569836177 6.7854569574 22.2585594477
334 1 1 0.0 14.8413361626 12.0385562452 24.9318653206
335 1 2 0.0 17.4896289908 9.9844652937 20.6847085526
336 1 2 0.0 16.1153097703 12.8728889933 19.7589096367
337 1 2 0.0 17.5495152911 11.1766004271 19.6019369606
338 1 2 0.0 14.6988707188 3.7611803672 0.1826681786
339 1 2 0.0 8.3880731633 9.8252101742 23.4473713123
340 1 2 0.0 15.492713726 2.9922646753 25.5723153036
341 1 2 0.0 10.1423969705 8.518841506 20.4742079351
342 1 2 0.0 9.2508670585 6.4766608084 19.7016768283
343 1 2 0.0 15.4601332615 1.7385065599 26.5832639282
344 1 2 0.0 13.4142701404 9.5520999857 1.7123791667
345 1 2 0.0 17.1071504237 1.5220521528 25.09521189
346 1 2 0.0 11.5397956435 14.0096384152 26.4265927002
347 1 2 0.0 17.5814325791 9.1458702877 18.6071184036
348 1 2 0.0 9.6246575225 12.8403448776 26.2120755976
349 1 2 0.0 8.8648661084 10.9673790139 25.3471114414
350 1 2 0.0 14.3492499267 1.3346745792 24.6644341381
351 1 2 0.0 19.5846004405 10.3911525172 20.1161401824
352 1 2 0.0 14.5432947261 11.7275886568 21.8012823551
353 1 2 0.0 13.7417112071 10.4243953646 22.3874557484
354 1 2 0.0 15.9554201971 10.0224637259 22.2466159055
355 1 2 0.0 10.5711391691 9.5819589323 25.0778835604
356 1 2 0.0 11.6519696538 9.3360636639 21.9586664301
357 1 2 0.0 12.108196032 9.3072900045 23.4940059635
358 1 2 0.0 15.6655434999 4.9737291813 28.5392242822
359 1 2 0.0 16.4452588457 6.2845098192 27.9381609389
360 1 2 0.0 15.4488102046 5.0559226113 26.3335320294
361 1 2 0.0 17.3822705286 9.6047565476 22.8844483082
362 1 2 0.0 12.2468069837 3.8016904291 23.8747740393
363 1 2 0.0 12.4139592681 5.8066599161 25.0751394755
364 1 2 0.0 13.1086057694 5.8697095833 23.6285827919
365 1 2 0.0 10.7871781139 6.6837750988 26.6269674843
366 1 2 0.0 11.5968479259 8.4184687997 25.4932911959
367 1 2 0.0 16.2478545803 6.6482913349 20.8233835464
368 1 2 0.0 16.3801758845 7.8345804903 21.900057329
369 1 2 0.0 11.8047236358 12.4623773765 26.7928039243
370 1 2 0.0 13.2750853222 10.7031643668 27.3478606212
371 1 2 0.0 12.3835026123 10.446958986 26.0372753109
372 1 2 0.0 18.4023328385 4.1802321774 23.5961302147
373 1 2 0.0 16.9151885671 5.9481175124 23.0154841015
374 1 2 0.0 14.4368690847 4.8914991396 25.082481532
375 1 2 0.0 13.9475974577 10.0135496768 29.5508949997
376 1 2 0.0 12.7112649639 6.054631105 20.9698238102
377 1 2 0.0 10.8528079914 6.4998360458 19.8330335505
378 1 2 0.0 14.6826816068 13.6868438964 24.7871040279
379 1 2 0.0 14.7151070106 14.9394268729 23.7661761962
380 1 2 0.0 13.3500632128 5.651789322 18.8817712864
381 1 2 0.0 13.0596142381 15.1293380427 25.2854042359
382 1 2 0.0 12.0380881674 4.6879027965 20.4324463161
383 1 2 0.0 12.9732408821 6.89023938 29.1168042372
384 1 2 0.0 14.2321710783 6.6481335546 28.1401012555
385 1 2 0.0 14.7055732903 11.6166125093 24.0314931267
386 1 2 0.0 12.3208730733 6.9664935169 26.9926999393
387 1 2 0.0 16.3709274311 11.6512536341 25.567982852
388 1 2 0.0 13.1145610261 7.7250399607 22.3611329699
389 1 2 0.0 16.5624876939 5.1912627054 24.3864372273
390 1 2 0.0 13.8337324018 8.8289226873 28.4811266816
391 1 2 0.0 18.1744354569 6.671198999 24.7323910072
392 1 2 0.0 14.1131370798 11.6871049476 25.5322903018
393 1 2 0.0 14.4473396611 6.843411394 22.0900470349
394 1 2 0.0 20.3132289436 6.8293338698 22.1946709794
395 1 2 0.0 18.9494903758 6.6153097416 21.0580976916
396 1 2 0.0 16.3358284495 3.3292716917 21.8508569936
397 1 2 0.0 14.6876422249 2.6358236567 21.881787212
398 1 2 0.0 9.4071256222 6.6775169833 22.4790298145
399 1 2 0.0 9.8608030634 6.1048266517 24.1129873973
400 1 2 0.0 17.1461600776 13.2731916141 22.9890160044
401 1 2 0.0 12.9935057627 3.4406796301 28.0728221234
402 1 2 0.0 14.0824065679 8.5606093934 18.6011609232
403 1 2 0.0 14.7169493141 10.0494168908 19.3645938052
404 1 2 0.0 12.9854625396 9.6286878687 19.5267753634
405 1 2 0.0 11.7273118357 12.1399816718 22.5133108939
406 1 2 0.0 11.1986819901 13.3499571121 23.7218511205
407 1 2 0.0 14.6918513243 8.8318881074 24.2793800281
408 1 2 0.0 15.5017088402 7.3846752958 24.9452533266
409 1 2 0.0 15.8477726964 8.9987391705 25.6303940841
410 1 2 0.0 14.2580764819 8.2339541861 25.9058748879
411 1 2 0.0 18.7865443768 10.6913632771 16.9442602661
412 1 2 0.0 10.7207042806 4.7178311126 18.135471126
413 1 3 0.0 15.0750484243 8.3620597468 25.1898644099
414 1 1 0.0 12.6765413934 16.7923199397 21.5726098762
415 1 1 0.0 9.6274001558 21.1111090797 13.4957800472
416 1 1 0.0 9.4495459861 18.7848676242 12.1005291546
417 1 1 0.0 12.6690850869 16.0088050739 11.1773046022
418 1 1 0.0 11.6618790451 18.4366322758 10.540514855
419 1 1 0.0 3.7088462387 15.7528201737 16.3894349502
420 1 1 0.0 8.0643172949 9.7200665783 22.5024491444
421 1 1 0.0 10.261450759 9.3855264276 20.9649387879
422 1 1 0.0 10.3247017133 7.7272693303 16.9726159893
423 1 1 0.0 4.7988798697 12.797971838 10.9372975401
424 1 1 0.0 10.9521293441 16.773910534 23.6262221885
425 1 1 0.0 8.5463366724 16.0834359927 22.592458503
426 1 1 0.0 7.4864895825 13.9031097741 23.8142015075
427 1 1 0.0 6.8958641494 21.1247342093 16.9922334072
428 1 1 0.0 5.8937355119 18.952760944 18.258136581
429 1 1 0.0 13.2979039454 19.3188632091 20.8944954826
430 1 1 0.0 4.0329482945 12.1663638196 18.7541082607
431 1 1 0.0 11.2961347232 21.5427451909 17.5401153721
432 1 1 0.0 17.321394566 14.0293850636 14.931262843
433 1 1 0.0 15.6092498064 16.0379116905 14.3410157598
434 1 1 0.0 15.3162545002 16.2058208745 11.6364740281
435 1 1 0.0 11.5196420442 15.2030813132 13.4470125047
436 1 1 0.0 9.3182596763 16.71039368 13.8185034985
437 1 1 0.0 11.495310225 15.6401659651 19.4759940006
438 1 1 0.0 12.4919716235 13.1468394828 19.1876387612
439 1 1 0.0 6.2906541551 15.0714193622 16.4353715189
440 1 1 0.0 7.2024631297 15.0138900772 13.9050220748
441 1 1 0.0 10.0919563538 10.3763799091 16.7775794003
442 1 1 0.0 10.365342778 11.4526245865 19.2195769082
443 1 1 0.0 13.218992841 15.5152571601 15.5111496897
444 1 1 0.0 7.6804506635 11.0044721179 15.7690415344
445 1 1 0.0 12.0138298865 17.189426729 17.3203405479
446 1 1 0.0 6.4260371186 12.6202679369 17.5734590558
447 1 1 0.0 10.8493856222 12.6113848995 13.1450547772
448 1 1 0.0 7.6258230839 16.8941829145 17.9002636117
449 1 1 0.0 12.0692604602 11.2429219517 15.1680744564
450 1 1 0.0 8.8407046171 15.5310209675 19.9389656078
451 1 1 0.0 7.0068385215 11.369924486 11.5253793295
452 1 1 0.0 6.9888403331 12.1196515169 21.8641774465
453 1 1 0.0 15.9997581416 12.4212493243 16.6585720497
454 1 1 0.0 9.338685492 20.4270210883 16.0866440799
455 1 1 0.0 8.1493967059 12.9436132419 19.6167071099
456 1 1 0.0 8.1995529559 12.5231135527 13.6126431771
457 1 1 0.0 13.4075041639 13.0803288894 16.648234573
458 1 1 0.0 9.5839055007 17.7762128405 16.2859490501
459 1 2 0.0 14.7782251358 13.9196487678 21.2349440356
460 1 2 0.0 15.6851698842 15.9639769649 22.0284763444
461 1 2 0.0 14.0823838131 15.9414442145 21.9291442048
462 1 2 0.0 12.232198329 15.722121889 12.038792282
463 1 2 0.0 10.8578791084 18.6105455886 11.1129933662
464 1 2 0.0 12.2920846293 16.9142570224 10.9560206901
465 1 2 0.0 9.4414400569 9.4988369625 21.5367519081
466 1 2 0.0 3.1306425015 15.5628667695 14.8014550417
467 1 2 0.0 10.2352830642 8.7299212705 16.9263990331
468 1 2 0.0 4.8849663087 14.2564981013 11.8282916646
469 1 2 0.0 3.9934363966 12.2143174037 11.0557605577
470 1 2 0.0 10.2027025997 7.4761631552 17.9373476577
471 1 2 0.0 10.053793264 16.4494725199 23.3185535399
472 1 2 0.0 11.29016631 16.193132779 24.369827151
473 1 2 0.0 12.0407893233 16.7941387261 22.35172663
474 1 2 0.0 8.1568394786 15.289756581 23.0664628962
475 1 2 0.0 7.9981796871 13.474740023 24.5603508677
476 1 2 0.0 11.8497197619 7.2597087481 16.4492956195
477 1 2 0.0 6.2823649816 19.7472950105 17.7806764297
478 1 2 0.0 12.3240019173 14.8835268829 9.961202133
479 1 2 0.0 4.3672268606 18.5780014729 17.566159327
480 1 2 0.0 3.6074354466 16.7050356092 16.7011951708
481 1 2 0.0 13.1178553995 19.468067399 19.917804985
482 1 2 0.0 12.7877939458 19.9907159084 21.4334742029
483 1 2 0.0 12.8738206136 17.7518865462 21.3483697256
484 1 2 0.0 12.3444965351 20.2682402809 17.9814440179
485 1 2 0.0 10.8742781585 22.0820184301 18.2708963821
486 1 2 0.0 16.6948722948 14.7774152179 14.6914100798
487 1 2 0.0 9.0918192649 7.0723311745 16.0185178675
488 1 2 0.0 15.4316867188 16.1023163001 12.6267885339
489 1 2 0.0 14.3271697786 16.1288091125 11.4702239119
490 1 2 0.0 9.2858640642 17.4652452521 13.1553660845
491 1 2 0.0 8.4842805452 16.1620519598 13.7415394779
492 1 2 0.0 10.6979895353 15.7601203212 13.6006996349
493 1 2 0.0 11.9174783042 16.0768882446 20.2796822951
494 1 2 0.0 13.8802829568 13.1021395425 20.1769486789
495 1 2 0.0 12.1015138351 14.0666004198 19.2966420746
496 1 2 0.0 5.3137085073 15.3196155276 16.4319672898
497 1 2 0.0 6.394538992 15.0737202592 13.3127501595
498 1 2 0.0 6.8507653701 15.0449465998 14.8480896929
499 1 2 0.0 10.4081128381 10.7113857766 19.8933080116
500 1 2 0.0 11.1878281839 12.0221664144 19.2922446684
501 1 2 0.0 10.1913795427 10.7935792066 17.6876157588
502 1 2 0.0 14.7305924177 15.8828074656 14.7993198647
503 1 2 0.0 12.8411050619 16.1536552847 16.1843053602
504 1 2 0.0 12.1248398667 15.3424131429 14.2385320377
505 1 2 0.0 6.9893763219 9.5393470244 15.2288577687
506 1 2 0.0 7.1565286063 11.5443165114 16.429223205
507 1 2 0.0 7.8511751075 11.6073661785 14.9826665214
508 1 2 0.0 12.6070387853 18.6782960916 17.8728497939
509 1 2 0.0 11.8224915139 16.622166303 18.1277971542
510 1 2 0.0 5.5297474521 12.4214316941 17.9810512138
511 1 2 0.0 6.339417264 14.156125395 16.8473749254
512 1 2 0.0 10.9904239185 12.3859479302 12.1774672759
513 1 2 0.0 11.1227452226 13.5722370856 13.2541410585
514 1 2 0.0 6.5472929739 18.2000339718 18.1468876537
515 1 2 0.0 8.0176546604 16.4408209621 18.7019443507
516 1 2 0.0 7.1260719505 16.1846155813 17.3913590403
517 1 2 0.0 13.1449021767 9.9178887727 14.9502139441
518 1 2 0.0 11.6577579053 11.6857741077 14.3695678309
519 1 2 0.0 9.1794384229 10.6291557349 16.4365652615
520 1 2 0.0 8.6901667959 15.7512062721 20.9049787291
521 1 2 0.0 10.5056600602 15.6082769628 19.6540811593
522 1 2 0.0 7.4538343021 11.7922877003 12.3239075396
523 1 2 0.0 5.5953773295 12.237492641 11.18711728
524 1 2 0.0 7.6472610951 10.6029968342 22.2667201297
525 1 2 0.0 16.5757974751 12.614027176 18.2476053711
526 1 2 0.0 9.4252509449 19.4245004917 16.1411877573
527 1 2 0.0 9.4576763487 20.6770834682 15.1202599256
528 1 2 0.0 8.0926325509 11.3894459173 10.2358550158
529 1 2 0.0 7.8021835763 20.866994638 16.6394879654
530 1 2 0.0 7.1566835678 12.7794294989 22.6056970639
531 1 2 0.0 16.0988314824 11.466270949 16.3636281037
532 1 2 0.0 6.7806575055 10.4255593918 11.7865300456
533 1 2 0.0 16.502488036 12.9916761487 16.0018559983
534 1 2 0.0 10.5399414352 21.1422441732 17.0091387695
535 1 2 0.0 5.994303413 12.0780402371 21.7276364257
536 1 2 0.0 7.7158102202 12.6278959753 20.4708879667
537 1 2 0.0 8.9747404164 12.3857901499 19.494184985
538 1 2 0.0 14.3781553441 12.8133107622 16.638832965
539 1 2 0.0 12.8250654469 13.1087497323 18.2404649035
540 1 2 0.0 9.4481426285 17.3542691046 15.3855768561
541 1 2 0.0 7.0634424115 12.7041501122 18.3467836688
542 1 2 0.0 11.1134967693 17.3889102294 16.9220665814
543 1 2 0.0 7.8571303642 13.462696556 13.7152166994
544 1 2 0.0 13.2817684795 14.6214400161 15.9674335157
545 1 2 0.0 11.305057032 10.9289193007 15.7405209568
546 1 2 0.0 8.5763017399 14.5665792826 19.8352104111
547 1 2 0.0 12.917004795 12.4088555943 16.0864747367
548 1 2 0.0 8.855706418 17.4247615429 16.8863740313
549 1 2 0.0 9.1899089992 12.5810679893 13.4441307643
550 1 2 0.0 9.9459518163 20.0673771506 19.6151046725
551 1 2 0.0 9.9357398417 18.3105195177 19.9594713204
552 1 2 0.0 15.0557982817 12.5669904651 13.5487547089
553 1 2 0.0 13.6920597139 12.3529663369 12.4121814211
554 1 2 0.0 4.6605197326 16.3997335885 19.6673752715
555 1 2 0.0 5.3541373581 14.7521120763 19.7530742589
556 1 2 0.0 11.0783977876 9.066928287 13.204940723
557 1 2 0.0 9.4302115631 8.373480252 13.2358709415
558 1 2 0.0 4.1496949603 12.4151735786 13.833113544
559 1 2 0.0 13.2113886364 18.0354820268 13.6346943411
560 1 2 0.0 4.6033724016 11.842483247 15.4670711268
561 1 2 0.0 11.8887294158 19.0108482094 14.3430997339
562 1 2 0.0 6.3376217292 9.8202795923 18.514186691
563 1 2 0.0 16.0778203575 15.6662395694 17.4639214146